MODEL 1
REMARK VINA RESULT:   -13.093      0.000      0.000
REMARK INTER + INTRA:         -17.446
REMARK INTER:                 -16.810
REMARK INTRA:                  -0.636
REMARK UNBOUND:                -1.291
REMARK  4 active torsions:
REMARK  status: ('A' for Active; 'I' for Inactive)
REMARK       I    between atoms: N2_14  and  C12_15 
REMARK    1  A    between atoms: C12_15  and  C13_17 
REMARK       I    between atoms: N3_20  and  C16_21 
REMARK    2  A    between atoms: C16_21  and  C17_23 
REMARK    3  A    between atoms: C19_25  and  C20_26 
REMARK    4  A    between atoms: C20_26  and  C21_27 
ROOT
HETATM    1  C13 UNL     1     -39.536   0.970  -9.015  1.00  0.00     0.089 C 
HETATM    2  C14 UNL     1     -39.502   2.512  -9.114  1.00  0.00     0.042 C 
HETATM    3  C15 UNL     1     -38.485   3.146  -8.146  1.00  0.00     0.246 C 
HETATM    4  N3  UNL     1     -37.140   2.552  -8.321  1.00  0.00    -0.004 N 
HETATM    5  C16 UNL     1     -36.180   3.239  -7.469  1.00  0.00     0.352 C 
HETATM    6  O3  UNL     1     -35.811   2.700  -6.385  1.00  0.00    -0.260 OA
HETATM    7  C32 UNL     1     -37.191   1.101  -8.030  1.00  0.00     0.246 C 
HETATM    8  C33 UNL     1     -38.115   0.379  -9.020  1.00  0.00     0.042 C 
HETATM    9  H18 UNL     1     -36.829   2.650  -9.315  1.00  0.00     0.290 HD
ENDROOT
BRANCH   5  10
HETATM   10  C17 UNL     1     -35.620   4.583  -7.832  1.00  0.00     0.079 A 
HETATM   11  C18 UNL     1     -36.195   5.773  -7.335  1.00  0.00     0.027 A 
HETATM   12  C19 UNL     1     -35.625   7.027  -7.606  1.00  0.00    -0.051 A 
HETATM   13  C29 UNL     1     -34.510   7.105  -8.448  1.00  0.00     0.010 A 
HETATM   14  C30 UNL     1     -33.949   5.945  -8.977  1.00  0.00     0.044 A 
HETATM   15  C31 UNL     1     -34.486   4.693  -8.669  1.00  0.00     0.132 A 
HETATM   16  F1  UNL     1     -33.886   3.594  -9.193  1.00  0.00    -0.205 F 
BRANCH  12  17
HETATM   17  C20 UNL     1     -36.224   8.277  -7.008  1.00  0.00     0.100 C 
BRANCH  17  18
HETATM   18  C21 UNL     1     -37.257   8.887  -7.928  1.00  0.00     0.070 A 
HETATM   19  N4  UNL     1     -37.013  10.131  -8.420  1.00  0.00    -0.175 NA
HETATM   20  N5  UNL     1     -37.843  10.741  -9.266  1.00  0.00    -0.243 N 
HETATM   21  C22 UNL     1     -38.988  10.147  -9.692  1.00  0.00     0.272 A 
HETATM   22  H22 UNL     1     -37.598  11.697  -9.609  1.00  0.00     0.192 HD
HETATM   23  O4  UNL     1     -39.743  10.758 -10.497  1.00  0.00    -0.266 OA
HETATM   24  C23 UNL     1     -39.314   8.862  -9.229  1.00  0.00     0.046 A 
HETATM   25  C24 UNL     1     -40.493   8.212  -9.645  1.00  0.00     0.018 A 
HETATM   26  C28 UNL     1     -38.436   8.214  -8.326  1.00  0.00     0.006 A 
HETATM   27  C25 UNL     1     -40.799   6.936  -9.171  1.00  0.00     0.001 A 
HETATM   28  C26 UNL     1     -39.941   6.297  -8.277  1.00  0.00     0.001 A 
HETATM   29  C27 UNL     1     -38.769   6.927  -7.853  1.00  0.00     0.014 A 
ENDBRANCH  17  18
ENDBRANCH  12  17
ENDBRANCH   5  10
BRANCH   1  30
HETATM   30  C12 UNL     1     -40.345   0.464  -7.829  1.00  0.00     0.321 C 
HETATM   31  N2  UNL     1     -40.818   1.401  -6.817  1.00  0.00     0.001 N 
HETATM   32  C3  UNL     1     -42.232   1.192  -6.399  1.00  0.00     0.249 C 
HETATM   33  C11 UNL     1     -39.922   1.401  -5.642  1.00  0.00     0.250 C 
HETATM   34  H12 UNL     1     -40.766   2.365  -7.226  1.00  0.00     0.291 HD
HETATM   35  C2  UNL     1     -43.208   1.159  -7.601  1.00  0.00     0.161 C 
HETATM   36  C4  UNL     1     -42.406  -0.030  -5.507  1.00  0.00    -0.003 A 
HETATM   37  N1  UNL     1     -44.570   0.916  -7.138  1.00  0.00    -0.355 N 
HETATM   38  C1  UNL     1     -44.820  -0.072  -6.134  1.00  0.00     0.252 C 
HETATM   39  H1  UNL     1     -45.369   1.413  -7.591  1.00  0.00     0.162 HD
HETATM   40  O1  UNL     1     -45.999  -0.455  -5.912  1.00  0.00    -0.268 OA
HETATM   41  C9  UNL     1     -43.684  -0.615  -5.357  1.00  0.00     0.041 A 
HETATM   42  C8  UNL     1     -43.859  -1.695  -4.480  1.00  0.00     0.017 A 
HETATM   43  C7  UNL     1     -42.777  -2.188  -3.749  1.00  0.00     0.002 A 
HETATM   44  C6  UNL     1     -41.515  -1.604  -3.878  1.00  0.00     0.008 A 
HETATM   45  C5  UNL     1     -41.322  -0.513  -4.740  1.00  0.00    -0.047 A 
HETATM   46  C10 UNL     1     -39.936   0.062  -4.885  1.00  0.00     0.067 C 
HETATM   47  O2  UNL     1     -40.599  -0.730  -7.731  1.00  0.00    -0.265 OA
ENDBRANCH   1  30
TORSDOF 4
ENDMDL
MODEL 2
REMARK VINA RESULT:   -12.935      1.423      1.935
REMARK INTER + INTRA:         -17.251
REMARK INTER:                 -17.123
REMARK INTRA:                  -0.128
REMARK UNBOUND:                -1.291
REMARK  4 active torsions:
REMARK  status: ('A' for Active; 'I' for Inactive)
REMARK       I    between atoms: N2_14  and  C12_15 
REMARK    1  A    between atoms: C12_15  and  C13_17 
REMARK       I    between atoms: N3_20  and  C16_21 
REMARK    2  A    between atoms: C16_21  and  C17_23 
REMARK    3  A    between atoms: C19_25  and  C20_26 
REMARK    4  A    between atoms: C20_26  and  C21_27 
ROOT
HETATM    1  C13 UNL     1     -39.366   1.152  -8.496  1.00  0.00     0.089 C 
HETATM    2  C14 UNL     1     -39.468   2.690  -8.614  1.00  0.00     0.042 C 
HETATM    3  C15 UNL     1     -38.544   3.423  -7.624  1.00  0.00     0.246 C 
HETATM    4  N3  UNL     1     -37.146   2.953  -7.750  1.00  0.00    -0.004 N 
HETATM    5  C16 UNL     1     -36.279   3.733  -6.879  1.00  0.00     0.352 C 
HETATM    6  O3  UNL     1     -35.898   3.240  -5.777  1.00  0.00    -0.260 OA
HETATM    7  C32 UNL     1     -37.074   1.506  -7.442  1.00  0.00     0.246 C 
HETATM    8  C33 UNL     1     -37.898   0.693  -8.451  1.00  0.00     0.042 C 
HETATM    9  H18 UNL     1     -36.814   3.068  -8.735  1.00  0.00     0.290 HD
ENDROOT
BRANCH   5  10
HETATM   10  C17 UNL     1     -35.832   5.118  -7.242  1.00  0.00     0.079 A 
HETATM   11  C18 UNL     1     -36.757   6.179  -7.350  1.00  0.00     0.027 A 
HETATM   12  C19 UNL     1     -36.333   7.492  -7.608  1.00  0.00    -0.051 A 
HETATM   13  C29 UNL     1     -34.976   7.741  -7.841  1.00  0.00     0.010 A 
HETATM   14  C30 UNL     1     -34.052   6.701  -7.774  1.00  0.00     0.044 A 
HETATM   15  C31 UNL     1     -34.466   5.402  -7.468  1.00  0.00     0.132 A 
HETATM   16  F1  UNL     1     -33.521   4.430  -7.394  1.00  0.00    -0.205 F 
BRANCH  12  17
HETATM   17  C20 UNL     1     -37.337   8.619  -7.654  1.00  0.00     0.100 C 
BRANCH  17  18
HETATM   18  C21 UNL     1     -38.573   8.223  -8.430  1.00  0.00     0.070 A 
HETATM   19  N4  UNL     1     -38.952   6.918  -8.399  1.00  0.00    -0.175 NA
HETATM   20  N5  UNL     1     -40.045   6.474  -9.019  1.00  0.00    -0.243 N 
HETATM   21  C22 UNL     1     -40.853   7.311  -9.720  1.00  0.00     0.272 A 
HETATM   22  H22 UNL     1     -40.281   5.459  -8.956  1.00  0.00     0.192 HD
HETATM   23  O4  UNL     1     -41.881   6.851 -10.288  1.00  0.00    -0.266 OA
HETATM   24  C23 UNL     1     -40.532   8.676  -9.802  1.00  0.00     0.046 A 
HETATM   25  C24 UNL     1     -41.344   9.576 -10.521  1.00  0.00     0.018 A 
HETATM   26  C28 UNL     1     -39.368   9.148  -9.148  1.00  0.00     0.006 A 
HETATM   27  C25 UNL     1     -41.004  10.928 -10.591  1.00  0.00     0.001 A 
HETATM   28  C26 UNL     1     -39.856  11.396  -9.954  1.00  0.00     0.001 A 
HETATM   29  C27 UNL     1     -39.040  10.517  -9.239  1.00  0.00     0.014 A 
ENDBRANCH  17  18
ENDBRANCH  12  17
ENDBRANCH   5  10
BRANCH   1  30
HETATM   30  C12 UNL     1     -40.162   0.588  -7.329  1.00  0.00     0.321 C 
HETATM   31  N2  UNL     1     -40.670   1.480  -6.294  1.00  0.00     0.001 N 
HETATM   32  C3  UNL     1     -42.079   1.213  -5.889  1.00  0.00     0.249 C 
HETATM   33  C11 UNL     1     -39.780   1.476  -5.115  1.00  0.00     0.250 C 
HETATM   34  H12 UNL     1     -40.648   2.456  -6.675  1.00  0.00     0.291 HD
HETATM   35  C2  UNL     1     -43.048   1.182  -7.096  1.00  0.00     0.161 C 
HETATM   36  C4  UNL     1     -42.216  -0.039  -5.032  1.00  0.00    -0.003 A 
HETATM   37  N1  UNL     1     -44.403   0.882  -6.647  1.00  0.00    -0.355 N 
HETATM   38  C1  UNL     1     -44.625  -0.142  -5.673  1.00  0.00     0.252 C 
HETATM   39  H1  UNL     1     -45.216   1.366  -7.089  1.00  0.00     0.162 HD
HETATM   40  O1  UNL     1     -45.792  -0.569  -5.467  1.00  0.00    -0.268 OA
HETATM   41  C9  UNL     1     -43.475  -0.668  -4.905  1.00  0.00     0.041 A 
HETATM   42  C8  UNL     1     -43.618  -1.778  -4.059  1.00  0.00     0.017 A 
HETATM   43  C7  UNL     1     -42.524  -2.256  -3.337  1.00  0.00     0.002 A 
HETATM   44  C6  UNL     1     -41.281  -1.628  -3.444  1.00  0.00     0.008 A 
HETATM   45  C5  UNL     1     -41.120  -0.508  -4.273  1.00  0.00    -0.047 A 
HETATM   46  C10 UNL     1     -39.753   0.116  -4.395  1.00  0.00     0.067 C 
HETATM   47  O2  UNL     1     -40.378  -0.616  -7.266  1.00  0.00    -0.265 OA
ENDBRANCH   1  30
TORSDOF 4
ENDMDL
MODEL 3
REMARK VINA RESULT:   -12.214      2.525      9.981
REMARK INTER + INTRA:         -16.362
REMARK INTER:                 -14.915
REMARK INTRA:                  -1.447
REMARK UNBOUND:                -1.291
REMARK  4 active torsions:
REMARK  status: ('A' for Active; 'I' for Inactive)
REMARK       I    between atoms: N2_14  and  C12_15 
REMARK    1  A    between atoms: C12_15  and  C13_17 
REMARK       I    between atoms: N3_20  and  C16_21 
REMARK    2  A    between atoms: C16_21  and  C17_23 
REMARK    3  A    between atoms: C19_25  and  C20_26 
REMARK    4  A    between atoms: C20_26  and  C21_27 
ROOT
HETATM    1  C13 UNL     1     -38.160   6.117  -6.910  1.00  0.00     0.089 C 
HETATM    2  C14 UNL     1     -38.732   5.474  -8.195  1.00  0.00     0.042 C 
HETATM    3  C15 UNL     1     -37.878   4.295  -8.698  1.00  0.00     0.246 C 
HETATM    4  N3  UNL     1     -37.666   3.294  -7.627  1.00  0.00    -0.004 N 
HETATM    5  C16 UNL     1     -36.947   2.145  -8.158  1.00  0.00     0.352 C 
HETATM    6  O3  UNL     1     -35.708   2.027  -7.928  1.00  0.00    -0.260 OA
HETATM    7  C32 UNL     1     -36.946   3.917  -6.494  1.00  0.00     0.246 C 
HETATM    8  C33 UNL     1     -37.780   5.046  -5.872  1.00  0.00     0.042 C 
HETATM    9  H18 UNL     1     -38.587   2.965  -7.255  1.00  0.00     0.290 HD
ENDROOT
BRANCH   5  10
HETATM   10  C17 UNL     1     -37.630   1.097  -8.985  1.00  0.00     0.079 A 
HETATM   11  C18 UNL     1     -38.485   0.142  -8.394  1.00  0.00     0.027 A 
HETATM   12  C19 UNL     1     -39.191  -0.788  -9.174  1.00  0.00    -0.051 A 
HETATM   13  C29 UNL     1     -38.982  -0.819 -10.557  1.00  0.00     0.010 A 
HETATM   14  C30 UNL     1     -38.115   0.092 -11.156  1.00  0.00     0.044 A 
HETATM   15  C31 UNL     1     -37.450   1.050 -10.387  1.00  0.00     0.132 A 
HETATM   16  F1  UNL     1     -36.634   1.928 -11.024  1.00  0.00    -0.205 F 
BRANCH  12  17
HETATM   17  C20 UNL     1     -40.148  -1.756  -8.521  1.00  0.00     0.100 C 
BRANCH  17  18
HETATM   18  C21 UNL     1     -41.439  -1.074  -8.130  1.00  0.00     0.070 A 
HETATM   19  N4  UNL     1     -42.004  -0.222  -9.027  1.00  0.00    -0.175 NA
HETATM   20  N5  UNL     1     -43.160   0.400  -8.793  1.00  0.00    -0.243 N 
HETATM   21  C22 UNL     1     -43.847   0.213  -7.636  1.00  0.00     0.272 A 
HETATM   22  H22 UNL     1     -43.542   1.041  -9.524  1.00  0.00     0.192 HD
HETATM   23  O4  UNL     1     -44.939   0.817  -7.458  1.00  0.00    -0.266 OA
HETATM   24  C23 UNL     1     -43.330  -0.651  -6.656  1.00  0.00     0.046 A 
HETATM   25  C24 UNL     1     -44.011  -0.870  -5.443  1.00  0.00     0.018 A 
HETATM   26  C28 UNL     1     -42.100  -1.309  -6.901  1.00  0.00     0.006 A 
HETATM   27  C25 UNL     1     -43.478  -1.731  -4.482  1.00  0.00     0.001 A 
HETATM   28  C26 UNL     1     -42.265  -2.376  -4.716  1.00  0.00     0.001 A 
HETATM   29  C27 UNL     1     -41.576  -2.169  -5.912  1.00  0.00     0.014 A 
ENDBRANCH  17  18
ENDBRANCH  12  17
ENDBRANCH   5  10
BRANCH   1  30
HETATM   30  C12 UNL     1     -37.002   7.066  -7.181  1.00  0.00     0.321 C 
HETATM   31  N2  UNL     1     -35.743   6.902  -6.466  1.00  0.00     0.001 N 
HETATM   32  C3  UNL     1     -34.530   7.016  -7.323  1.00  0.00     0.249 C 
HETATM   33  C11 UNL     1     -35.663   7.836  -5.323  1.00  0.00     0.250 C 
HETATM   34  H12 UNL     1     -35.732   5.936  -6.057  1.00  0.00     0.291 HD
HETATM   35  C2  UNL     1     -34.579   6.072  -8.549  1.00  0.00     0.161 C 
HETATM   36  C4  UNL     1     -34.235   8.452  -7.735  1.00  0.00    -0.003 A 
HETATM   37  N1  UNL     1     -33.386   6.251  -9.371  1.00  0.00    -0.355 N 
HETATM   38  C1  UNL     1     -32.895   7.566  -9.643  1.00  0.00     0.252 C 
HETATM   39  H1  UNL     1     -32.935   5.422  -9.817  1.00  0.00     0.162 HD
HETATM   40  O1  UNL     1     -32.026   7.737 -10.540  1.00  0.00    -0.268 OA
HETATM   41  C9  UNL     1     -33.403   8.706  -8.849  1.00  0.00     0.041 A 
HETATM   42  C8  UNL     1     -33.072  10.026  -9.186  1.00  0.00     0.017 A 
HETATM   43  C7  UNL     1     -33.555  11.089  -8.420  1.00  0.00     0.002 A 
HETATM   44  C6  UNL     1     -34.363  10.844  -7.308  1.00  0.00     0.008 A 
HETATM   45  C5  UNL     1     -34.694   9.530  -6.945  1.00  0.00    -0.047 A 
HETATM   46  C10 UNL     1     -35.603   9.309  -5.763  1.00  0.00     0.067 C 
HETATM   47  O2  UNL     1     -37.132   7.964  -8.004  1.00  0.00    -0.265 OA
ENDBRANCH   1  30
TORSDOF 4
ENDMDL
MODEL 4
REMARK VINA RESULT:   -11.810      2.697      9.185
REMARK INTER + INTRA:         -15.863
REMARK INTER:                 -14.588
REMARK INTRA:                  -1.274
REMARK UNBOUND:                -1.291
REMARK  4 active torsions:
REMARK  status: ('A' for Active; 'I' for Inactive)
REMARK       I    between atoms: N2_14  and  C12_15 
REMARK    1  A    between atoms: C12_15  and  C13_17 
REMARK       I    between atoms: N3_20  and  C16_21 
REMARK    2  A    between atoms: C16_21  and  C17_23 
REMARK    3  A    between atoms: C19_25  and  C20_26 
REMARK    4  A    between atoms: C20_26  and  C21_27 
ROOT
HETATM    1  C13 UNL     1     -35.176   4.075  -7.394  1.00  0.00     0.089 C 
HETATM    2  C14 UNL     1     -36.221   3.078  -6.844  1.00  0.00     0.042 C 
HETATM    3  C15 UNL     1     -37.212   2.602  -7.922  1.00  0.00     0.246 C 
HETATM    4  N3  UNL     1     -36.500   2.059  -9.101  1.00  0.00    -0.004 N 
HETATM    5  C16 UNL     1     -37.458   1.524 -10.057  1.00  0.00     0.352 C 
HETATM    6  O3  UNL     1     -37.758   2.201 -11.082  1.00  0.00    -0.260 OA
HETATM    7  C32 UNL     1     -35.653   3.113  -9.704  1.00  0.00     0.246 C 
HETATM    8  C33 UNL     1     -34.571   3.574  -8.718  1.00  0.00     0.042 C 
HETATM    9  H18 UNL     1     -35.857   1.287  -8.808  1.00  0.00     0.290 HD
ENDROOT
BRANCH   5  10
HETATM   10  C17 UNL     1     -38.115   0.190  -9.855  1.00  0.00     0.079 A 
HETATM   11  C18 UNL     1     -39.223   0.044  -8.992  1.00  0.00     0.027 A 
HETATM   12  C19 UNL     1     -39.892  -1.183  -8.865  1.00  0.00    -0.051 A 
HETATM   13  C29 UNL     1     -39.404  -2.304  -9.547  1.00  0.00     0.010 A 
HETATM   14  C30 UNL     1     -38.291  -2.188 -10.376  1.00  0.00     0.044 A 
HETATM   15  C31 UNL     1     -37.654  -0.956 -10.542  1.00  0.00     0.132 A 
HETATM   16  F1  UNL     1     -36.587  -0.895 -11.380  1.00  0.00    -0.205 F 
BRANCH  12  17
HETATM   17  C20 UNL     1     -41.112  -1.294  -7.983  1.00  0.00     0.100 C 
BRANCH  17  18
HETATM   18  C21 UNL     1     -41.501   0.049  -7.408  1.00  0.00     0.070 A 
HETATM   19  N4  UNL     1     -42.250   0.878  -8.183  1.00  0.00    -0.175 NA
HETATM   20  N5  UNL     1     -42.674   2.068  -7.756  1.00  0.00    -0.243 N 
HETATM   21  C22 UNL     1     -42.383   2.520  -6.508  1.00  0.00     0.272 A 
HETATM   22  H22 UNL     1     -43.247   2.658  -8.399  1.00  0.00     0.192 HD
HETATM   23  O4  UNL     1     -42.808   3.650  -6.142  1.00  0.00    -0.266 OA
HETATM   24  C23 UNL     1     -41.612   1.724  -5.645  1.00  0.00     0.046 A 
HETATM   25  C24 UNL     1     -41.287   2.158  -4.345  1.00  0.00     0.018 A 
HETATM   26  C28 UNL     1     -41.156   0.461  -6.099  1.00  0.00     0.006 A 
HETATM   27  C25 UNL     1     -40.518   1.351  -3.505  1.00  0.00     0.001 A 
HETATM   28  C26 UNL     1     -40.062   0.111  -3.950  1.00  0.00     0.001 A 
HETATM   29  C27 UNL     1     -40.374  -0.334  -5.236  1.00  0.00     0.014 A 
ENDBRANCH  17  18
ENDBRANCH  12  17
ENDBRANCH   5  10
BRANCH   1  30
HETATM   30  C12 UNL     1     -35.715   5.492  -7.529  1.00  0.00     0.321 C 
HETATM   31  N2  UNL     1     -36.138   6.226  -6.343  1.00  0.00     0.001 N 
HETATM   32  C3  UNL     1     -35.671   7.640  -6.297  1.00  0.00     0.249 C 
HETATM   33  C11 UNL     1     -37.605   6.157  -6.180  1.00  0.00     0.250 C 
HETATM   34  H12 UNL     1     -35.726   5.747  -5.507  1.00  0.00     0.291 HD
HETATM   35  C2  UNL     1     -34.139   7.766  -6.489  1.00  0.00     0.161 C 
HETATM   36  C4  UNL     1     -36.430   8.541  -7.261  1.00  0.00    -0.003 A 
HETATM   37  N1  UNL     1     -33.743   9.170  -6.471  1.00  0.00    -0.355 N 
HETATM   38  C1  UNL     1     -34.519  10.143  -7.175  1.00  0.00     0.252 C 
HETATM   39  H1  UNL     1     -32.854   9.452  -6.002  1.00  0.00     0.162 HD
HETATM   40  O1  UNL     1     -34.053  11.298  -7.366  1.00  0.00    -0.268 OA
HETATM   41  C9  UNL     1     -35.871   9.780  -7.652  1.00  0.00     0.041 A 
HETATM   42  C8  UNL     1     -36.601  10.643  -8.483  1.00  0.00     0.017 A 
HETATM   43  C7  UNL     1     -37.879  10.286  -8.917  1.00  0.00     0.002 A 
HETATM   44  C6  UNL     1     -38.444   9.073  -8.519  1.00  0.00     0.008 A 
HETATM   45  C5  UNL     1     -37.737   8.201  -7.677  1.00  0.00    -0.047 A 
HETATM   46  C10 UNL     1     -38.363   6.881  -7.306  1.00  0.00     0.067 C 
HETATM   47  O2  UNL     1     -35.786   6.012  -8.635  1.00  0.00    -0.265 OA
ENDBRANCH   1  30
TORSDOF 4
ENDMDL
MODEL 5
REMARK VINA RESULT:   -11.011      2.524      3.808
REMARK INTER + INTRA:         -14.878
REMARK INTER:                 -13.586
REMARK INTRA:                  -1.291
REMARK UNBOUND:                -1.291
REMARK  4 active torsions:
REMARK  status: ('A' for Active; 'I' for Inactive)
REMARK       I    between atoms: N2_14  and  C12_15 
REMARK    1  A    between atoms: C12_15  and  C13_17 
REMARK       I    between atoms: N3_20  and  C16_21 
REMARK    2  A    between atoms: C16_21  and  C17_23 
REMARK    3  A    between atoms: C19_25  and  C20_26 
REMARK    4  A    between atoms: C20_26  and  C21_27 
ROOT
HETATM    1  C13 UNL     1     -39.130   1.723  -8.529  1.00  0.00     0.089 C 
HETATM    2  C14 UNL     1     -39.195   3.265  -8.618  1.00  0.00     0.042 C 
HETATM    3  C15 UNL     1     -38.337   3.958  -7.543  1.00  0.00     0.246 C 
HETATM    4  N3  UNL     1     -36.942   3.462  -7.572  1.00  0.00    -0.004 N 
HETATM    5  C16 UNL     1     -36.132   4.205  -6.618  1.00  0.00     0.352 C 
HETATM    6  O3  UNL     1     -35.846   3.681  -5.502  1.00  0.00    -0.260 OA
HETATM    7  C32 UNL     1     -36.921   2.008  -7.294  1.00  0.00     0.246 C 
HETATM    8  C33 UNL     1     -37.678   1.234  -8.382  1.00  0.00     0.042 C 
HETATM    9  H18 UNL     1     -36.533   3.593  -8.525  1.00  0.00     0.290 HD
ENDROOT
BRANCH   5  10
HETATM   10  C17 UNL     1     -35.633   5.590  -6.913  1.00  0.00     0.079 A 
HETATM   11  C18 UNL     1     -34.409   5.797  -7.583  1.00  0.00     0.027 A 
HETATM   12  C19 UNL     1     -33.979   7.086  -7.935  1.00  0.00    -0.051 A 
HETATM   13  C29 UNL     1     -34.741   8.193  -7.543  1.00  0.00     0.010 A 
HETATM   14  C30 UNL     1     -35.935   8.011  -6.849  1.00  0.00     0.044 A 
HETATM   15  C31 UNL     1     -36.389   6.725  -6.543  1.00  0.00     0.132 A 
HETATM   16  F1  UNL     1     -37.570   6.604  -5.885  1.00  0.00    -0.205 F 
BRANCH  12  17
HETATM   17  C20 UNL     1     -32.696   7.274  -8.708  1.00  0.00     0.100 C 
BRANCH  17  18
HETATM   18  C21 UNL     1     -32.969   7.559 -10.168  1.00  0.00     0.070 A 
HETATM   19  N4  UNL     1     -33.072   8.860 -10.552  1.00  0.00    -0.175 NA
HETATM   20  N5  UNL     1     -33.276   9.218 -11.819  1.00  0.00    -0.243 N 
HETATM   21  C22 UNL     1     -33.389   8.295 -12.809  1.00  0.00     0.272 A 
HETATM   22  H22 UNL     1     -33.344  10.234 -12.049  1.00  0.00     0.192 HD
HETATM   23  O4  UNL     1     -33.576   8.677 -13.997  1.00  0.00    -0.266 OA
HETATM   24  C23 UNL     1     -33.296   6.929 -12.496  1.00  0.00     0.046 A 
HETATM   25  C24 UNL     1     -33.410   5.940 -13.493  1.00  0.00     0.018 A 
HETATM   26  C28 UNL     1     -33.084   6.546 -11.148  1.00  0.00     0.006 A 
HETATM   27  C25 UNL     1     -33.317   4.589 -13.159  1.00  0.00     0.001 A 
HETATM   28  C26 UNL     1     -33.115   4.207 -11.833  1.00  0.00     0.001 A 
HETATM   29  C27 UNL     1     -33.001   5.174 -10.832  1.00  0.00     0.014 A 
ENDBRANCH  17  18
ENDBRANCH  12  17
ENDBRANCH   5  10
BRANCH   1  30
HETATM   30  C12 UNL     1     -40.025   1.149  -7.441  1.00  0.00     0.321 C 
HETATM   31  N2  UNL     1     -40.673   2.038  -6.486  1.00  0.00     0.001 N 
HETATM   32  C3  UNL     1     -42.106   1.722  -6.227  1.00  0.00     0.249 C 
HETATM   33  C11 UNL     1     -39.914   2.091  -5.219  1.00  0.00     0.250 C 
HETATM   34  H12 UNL     1     -40.648   3.008  -6.884  1.00  0.00     0.291 HD
HETATM   35  C2  UNL     1     -42.939   1.632  -7.529  1.00  0.00     0.161 C 
HETATM   36  C4  UNL     1     -42.287   0.483  -5.361  1.00  0.00    -0.003 A 
HETATM   37  N1  UNL     1     -44.322   1.285  -7.219  1.00  0.00    -0.355 N 
HETATM   38  C1  UNL     1     -44.608   0.272  -6.251  1.00  0.00     0.252 C 
HETATM   39  H1  UNL     1     -45.100   1.728  -7.756  1.00  0.00     0.162 HD
HETATM   40  O1  UNL     1     -45.773  -0.198  -6.161  1.00  0.00    -0.268 OA
HETATM   41  C9  UNL     1     -43.528  -0.195  -5.355  1.00  0.00     0.041 A 
HETATM   42  C8  UNL     1     -43.718  -1.293  -4.504  1.00  0.00     0.017 A 
HETATM   43  C7  UNL     1     -42.690  -1.714  -3.659  1.00  0.00     0.002 A 
HETATM   44  C6  UNL     1     -41.468  -1.039  -3.648  1.00  0.00     0.008 A 
HETATM   45  C5  UNL     1     -41.261   0.071  -4.481  1.00  0.00    -0.047 A 
HETATM   46  C10 UNL     1     -39.914   0.747  -4.471  1.00  0.00     0.067 C 
HETATM   47  O2  UNL     1     -40.200  -0.062  -7.374  1.00  0.00    -0.265 OA
ENDBRANCH   1  30
TORSDOF 4
ENDMDL
