MODEL 1
REMARK VINA RESULT:    -6.605      0.000      0.000
REMARK INTER + INTRA:          -8.381
REMARK INTER:                  -7.484
REMARK INTRA:                  -0.897
REMARK UNBOUND:                -0.617
REMARK  3 active torsions:
REMARK  status: ('A' for Active; 'I' for Inactive)
REMARK       I    between atoms: N1_1  and  C1_2 
REMARK    1  A    between atoms: C1_2  and  C2_4 
REMARK    2  A    between atoms: N2_10  and  C8_11 
REMARK    3  A    between atoms: C11_14  and  C12_15 
ROOT
HETATM    1  C2  UNL     1      35.609 -20.764 -19.916  1.00  0.00     0.063 A 
HETATM    2  C3  UNL     1      35.611 -19.581 -20.697  1.00  0.00     0.019 A 
HETATM    3  C4  UNL     1      34.635 -18.579 -20.496  1.00  0.00     0.002 A 
HETATM    4  C5  UNL     1      33.643 -18.733 -19.513  1.00  0.00     0.015 A 
HETATM    5  C6  UNL     1      33.668 -19.896 -18.753  1.00  0.00     0.013 A 
HETATM    6  C7  UNL     1      32.853 -20.346 -17.743  1.00  0.00     0.132 A 
HETATM    7  N2  UNL     1      33.320 -21.561 -17.358  1.00  0.00    -0.244 N 
HETATM    8  N4  UNL     1      34.384 -21.889 -18.086  1.00  0.00    -0.166 NA
HETATM    9  C19 UNL     1      34.608 -20.873 -18.939  1.00  0.00     0.104 A 
ENDROOT
BRANCH   7  10
HETATM   10  C8  UNL     1      32.769 -22.416 -16.333  1.00  0.00     0.058 A 
HETATM   11  C9  UNL     1      33.303 -23.692 -16.079  1.00  0.00     0.032 A 
HETATM   12  C10 UNL     1      32.755 -24.506 -15.085  1.00  0.00     0.010 A 
HETATM   13  C11 UNL     1      31.653 -24.076 -14.322  1.00  0.00    -0.052 A 
HETATM   14  C17 UNL     1      31.124 -22.799 -14.577  1.00  0.00     0.010 A 
HETATM   15  C18 UNL     1      31.671 -21.984 -15.571  1.00  0.00     0.032 A 
BRANCH  13  16
HETATM   16  C12 UNL     1      31.095 -24.993 -13.236  1.00  0.00     0.044 C 
HETATM   17  C13 UNL     1      30.324 -24.251 -12.117  1.00  0.00     0.013 C 
HETATM   18  C14 UNL     1      31.190 -23.838 -10.921  1.00  0.00     0.028 C 
HETATM   19  C15 UNL     1      32.118 -24.973 -10.484  1.00  0.00     0.232 C 
HETATM   20  N3  UNL     1      32.957 -25.429 -11.598  1.00  0.00    -0.074 N 
HETATM   21  C16 UNL     1      32.145 -25.989 -12.690  1.00  0.00     0.241 C 
HETATM   22  H16 UNL     1      33.560 -24.651 -11.948  1.00  0.00     0.277 HD
HETATM   23  H17 UNL     1      33.592 -26.182 -11.244  1.00  0.00     0.277 HD
ENDBRANCH  13  16
ENDBRANCH   7  10
BRANCH   1  24
HETATM   24  C1  UNL     1      36.627 -21.827 -20.106  1.00  0.00     0.251 C 
HETATM   25  N1  UNL     1      36.268 -23.211 -20.101  1.00  0.00    -0.366 N 
HETATM   26  H1  UNL     1      35.314 -23.531 -19.829  1.00  0.00     0.159 HD
HETATM   27  H2  UNL     1      36.994 -23.937 -20.293  1.00  0.00     0.159 HD
HETATM   28  O1  UNL     1      37.837 -21.513 -20.267  1.00  0.00    -0.268 OA
ENDBRANCH   1  24
TORSDOF 3
ENDMDL
MODEL 2
REMARK VINA RESULT:    -5.858      2.655      8.225
REMARK INTER + INTRA:          -7.502
REMARK INTER:                  -6.763
REMARK INTRA:                  -0.739
REMARK UNBOUND:                -0.617
REMARK  3 active torsions:
REMARK  status: ('A' for Active; 'I' for Inactive)
REMARK       I    between atoms: N1_1  and  C1_2 
REMARK    1  A    between atoms: C1_2  and  C2_4 
REMARK    2  A    between atoms: N2_10  and  C8_11 
REMARK    3  A    between atoms: C11_14  and  C12_15 
ROOT
HETATM    1  C2  UNL     1      32.226 -24.865 -12.961  1.00  0.00     0.063 A 
HETATM    2  C3  UNL     1      31.151 -24.905 -12.037  1.00  0.00     0.019 A 
HETATM    3  C4  UNL     1      30.159 -23.898 -12.034  1.00  0.00     0.002 A 
HETATM    4  C5  UNL     1      30.214 -22.838 -12.954  1.00  0.00     0.015 A 
HETATM    5  C6  UNL     1      31.270 -22.826 -13.857  1.00  0.00     0.013 A 
HETATM    6  C7  UNL     1      31.609 -21.944 -14.855  1.00  0.00     0.132 A 
HETATM    7  N2  UNL     1      32.752 -22.402 -15.427  1.00  0.00    -0.244 N 
HETATM    8  N4  UNL     1      33.141 -23.525 -14.827  1.00  0.00    -0.166 NA
HETATM    9  C19 UNL     1      32.236 -23.794 -13.868  1.00  0.00     0.104 A 
ENDROOT
BRANCH   7  10
HETATM   10  C8  UNL     1      33.484 -21.791 -16.510  1.00  0.00     0.058 A 
HETATM   11  C9  UNL     1      34.759 -22.252 -16.885  1.00  0.00     0.032 A 
HETATM   12  C10 UNL     1      35.453 -21.645 -17.935  1.00  0.00     0.010 A 
HETATM   13  C11 UNL     1      34.901 -20.556 -18.635  1.00  0.00    -0.052 A 
HETATM   14  C17 UNL     1      33.625 -20.100 -18.259  1.00  0.00     0.010 A 
HETATM   15  C18 UNL     1      32.930 -20.705 -17.209  1.00  0.00     0.032 A 
BRANCH  13  16
HETATM   16  C12 UNL     1      35.688 -19.933 -19.785  1.00  0.00     0.044 C 
HETATM   17  C13 UNL     1      35.520 -18.400 -19.909  1.00  0.00     0.013 C 
HETATM   18  C14 UNL     1      34.378 -17.963 -20.835  1.00  0.00     0.028 C 
HETATM   19  C15 UNL     1      34.376 -18.765 -22.138  1.00  0.00     0.232 C 
HETATM   20  N3  UNL     1      34.305 -20.207 -21.872  1.00  0.00    -0.074 N 
HETATM   21  C16 UNL     1      35.484 -20.675 -21.127  1.00  0.00     0.241 C 
HETATM   22  H16 UNL     1      33.427 -20.443 -21.358  1.00  0.00     0.277 HD
HETATM   23  H17 UNL     1      34.277 -20.709 -22.789  1.00  0.00     0.277 HD
ENDBRANCH  13  16
ENDBRANCH   7  10
BRANCH   1  24
HETATM   24  C1  UNL     1      33.275 -25.913 -12.985  1.00  0.00     0.251 C 
HETATM   25  N1  UNL     1      33.418 -26.798 -14.099  1.00  0.00    -0.366 N 
HETATM   26  H1  UNL     1      32.713 -26.835 -14.867  1.00  0.00     0.159 HD
HETATM   27  H2  UNL     1      34.200 -27.490 -14.116  1.00  0.00     0.159 HD
HETATM   28  O1  UNL     1      34.055 -26.040 -12.004  1.00  0.00    -0.268 OA
ENDBRANCH   1  24
TORSDOF 3
ENDMDL
MODEL 3
REMARK VINA RESULT:    -5.807      4.569      6.483
REMARK INTER + INTRA:          -7.443
REMARK INTER:                  -6.770
REMARK INTRA:                  -0.673
REMARK UNBOUND:                -0.617
REMARK  3 active torsions:
REMARK  status: ('A' for Active; 'I' for Inactive)
REMARK       I    between atoms: N1_1  and  C1_2 
REMARK    1  A    between atoms: C1_2  and  C2_4 
REMARK    2  A    between atoms: N2_10  and  C8_11 
REMARK    3  A    between atoms: C11_14  and  C12_15 
ROOT
HETATM    1  C2  UNL     1      34.103 -24.154 -15.378  1.00  0.00     0.063 A 
HETATM    2  C3  UNL     1      35.495 -24.017 -15.608  1.00  0.00     0.019 A 
HETATM    3  C4  UNL     1      35.989 -23.045 -16.507  1.00  0.00     0.002 A 
HETATM    4  C5  UNL     1      35.109 -22.188 -17.189  1.00  0.00     0.015 A 
HETATM    5  C6  UNL     1      33.749 -22.334 -16.938  1.00  0.00     0.013 A 
HETATM    6  C7  UNL     1      32.652 -21.675 -17.438  1.00  0.00     0.132 A 
HETATM    7  N2  UNL     1      31.553 -22.228 -16.865  1.00  0.00    -0.244 N 
HETATM    8  N4  UNL     1      31.917 -23.204 -16.036  1.00  0.00    -0.166 NA
HETATM    9  C19 UNL     1      33.260 -23.272 -16.071  1.00  0.00     0.104 A 
ENDROOT
BRANCH   7  10
HETATM   10  C8  UNL     1      30.177 -21.864 -17.100  1.00  0.00     0.058 A 
HETATM   11  C9  UNL     1      29.117 -22.624 -16.574  1.00  0.00     0.032 A 
HETATM   12  C10 UNL     1      27.791 -22.256 -16.815  1.00  0.00     0.010 A 
HETATM   13  C11 UNL     1      27.482 -21.126 -17.595  1.00  0.00    -0.052 A 
HETATM   14  C17 UNL     1      28.544 -20.367 -18.117  1.00  0.00     0.010 A 
HETATM   15  C18 UNL     1      29.871 -20.734 -17.878  1.00  0.00     0.032 A 
BRANCH  13  16
HETATM   16  C12 UNL     1      26.019 -20.753 -17.821  1.00  0.00     0.044 C 
HETATM   17  C13 UNL     1      25.458 -19.745 -16.789  1.00  0.00     0.013 C 
HETATM   18  C14 UNL     1      24.804 -20.394 -15.564  1.00  0.00     0.028 C 
HETATM   19  C15 UNL     1      23.888 -21.552 -15.966  1.00  0.00     0.232 C 
HETATM   20  N3  UNL     1      24.617 -22.553 -16.756  1.00  0.00    -0.074 N 
HETATM   21  C16 UNL     1      25.106 -21.986 -18.022  1.00  0.00     0.241 C 
HETATM   22  H16 UNL     1      25.405 -22.956 -16.202  1.00  0.00     0.277 HD
HETATM   23  H17 UNL     1      23.959 -23.335 -16.980  1.00  0.00     0.277 HD
ENDBRANCH  13  16
ENDBRANCH   7  10
BRANCH   1  24
HETATM   24  C1  UNL     1      33.563 -25.164 -14.435  1.00  0.00     0.251 C 
HETATM   25  N1  UNL     1      32.608 -24.810 -13.431  1.00  0.00    -0.366 N 
HETATM   26  H1  UNL     1      32.362 -23.817 -13.232  1.00  0.00     0.159 HD
HETATM   27  H2  UNL     1      32.201 -25.550 -12.816  1.00  0.00     0.159 HD
HETATM   28  O1  UNL     1      33.954 -26.360 -14.507  1.00  0.00    -0.268 OA
ENDBRANCH   1  24
TORSDOF 3
ENDMDL
MODEL 4
REMARK VINA RESULT:    -5.573      4.218      5.663
REMARK INTER + INTRA:          -7.168
REMARK INTER:                  -6.551
REMARK INTRA:                  -0.617
REMARK UNBOUND:                -0.617
REMARK  3 active torsions:
REMARK  status: ('A' for Active; 'I' for Inactive)
REMARK       I    between atoms: N1_1  and  C1_2 
REMARK    1  A    between atoms: C1_2  and  C2_4 
REMARK    2  A    between atoms: N2_10  and  C8_11 
REMARK    3  A    between atoms: C11_14  and  C12_15 
ROOT
HETATM    1  C2  UNL     1      35.103 -22.487 -17.570  1.00  0.00     0.063 A 
HETATM    2  C3  UNL     1      36.146 -21.982 -18.388  1.00  0.00     0.019 A 
HETATM    3  C4  UNL     1      35.871 -21.068 -19.431  1.00  0.00     0.002 A 
HETATM    4  C5  UNL     1      34.557 -20.637 -19.676  1.00  0.00     0.015 A 
HETATM    5  C6  UNL     1      33.554 -21.137 -18.855  1.00  0.00     0.013 A 
HETATM    6  C7  UNL     1      32.196 -20.925 -18.839  1.00  0.00     0.132 A 
HETATM    7  N2  UNL     1      31.682 -21.678 -17.833  1.00  0.00    -0.244 N 
HETATM    8  N4  UNL     1      32.658 -22.352 -17.227  1.00  0.00    -0.166 NA
HETATM    9  C19 UNL     1      33.808 -22.022 -17.843  1.00  0.00     0.104 A 
ENDROOT
BRANCH   7  10
HETATM   10  C8  UNL     1      30.294 -21.783 -17.451  1.00  0.00     0.058 A 
HETATM   11  C9  UNL     1      29.341 -20.848 -17.892  1.00  0.00     0.032 A 
HETATM   12  C10 UNL     1      28.002 -20.965 -17.509  1.00  0.00     0.010 A 
HETATM   13  C11 UNL     1      27.577 -22.011 -16.668  1.00  0.00    -0.052 A 
HETATM   14  C17 UNL     1      28.533 -22.945 -16.232  1.00  0.00     0.010 A 
HETATM   15  C18 UNL     1      29.872 -22.829 -16.614  1.00  0.00     0.032 A 
BRANCH  13  16
HETATM   16  C12 UNL     1      26.102 -22.108 -16.286  1.00  0.00     0.044 C 
HETATM   17  C13 UNL     1      25.211 -22.760 -17.371  1.00  0.00     0.013 C 
HETATM   18  C14 UNL     1      24.592 -21.766 -18.361  1.00  0.00     0.028 C 
HETATM   19  C15 UNL     1      24.021 -20.542 -17.641  1.00  0.00     0.232 C 
HETATM   20  N3  UNL     1      25.045 -19.886 -16.819  1.00  0.00    -0.074 N 
HETATM   21  C16 UNL     1      25.528 -20.775 -15.752  1.00  0.00     0.241 C 
HETATM   22  H16 UNL     1      25.838 -19.557 -17.413  1.00  0.00     0.277 HD
HETATM   23  H17 UNL     1      24.616 -19.042 -16.373  1.00  0.00     0.277 HD
ENDBRANCH  13  16
ENDBRANCH   7  10
BRANCH   1  24
HETATM   24  C1  UNL     1      35.368 -23.443 -16.467  1.00  0.00     0.251 C 
HETATM   25  N1  UNL     1      34.498 -23.534 -15.336  1.00  0.00    -0.366 N 
HETATM   26  H1  UNL     1      33.731 -22.846 -15.175  1.00  0.00     0.159 HD
HETATM   27  H2  UNL     1      34.676 -24.253 -14.600  1.00  0.00     0.159 HD
HETATM   28  O1  UNL     1      36.384 -24.187 -16.514  1.00  0.00    -0.268 OA
ENDBRANCH   1  24
TORSDOF 3
ENDMDL
MODEL 5
REMARK VINA RESULT:    -5.462      3.223      4.867
REMARK INTER + INTRA:          -7.037
REMARK INTER:                  -6.363
REMARK INTRA:                  -0.675
REMARK UNBOUND:                -0.617
REMARK  3 active torsions:
REMARK  status: ('A' for Active; 'I' for Inactive)
REMARK       I    between atoms: N1_1  and  C1_2 
REMARK    1  A    between atoms: C1_2  and  C2_4 
REMARK    2  A    between atoms: N2_10  and  C8_11 
REMARK    3  A    between atoms: C11_14  and  C12_15 
ROOT
HETATM    1  C2  UNL     1      33.242 -15.600 -20.132  1.00  0.00     0.063 A 
HETATM    2  C3  UNL     1      33.735 -14.939 -21.285  1.00  0.00     0.019 A 
HETATM    3  C4  UNL     1      34.491 -15.638 -22.253  1.00  0.00     0.002 A 
HETATM    4  C5  UNL     1      34.767 -17.006 -22.094  1.00  0.00     0.015 A 
HETATM    5  C6  UNL     1      34.264 -17.635 -20.961  1.00  0.00     0.013 A 
HETATM    6  C7  UNL     1      34.362 -18.931 -20.516  1.00  0.00     0.132 A 
HETATM    7  N2  UNL     1      33.695 -19.004 -19.336  1.00  0.00    -0.244 N 
HETATM    8  N4  UNL     1      33.192 -17.811 -19.025  1.00  0.00    -0.166 NA
HETATM    9  C19 UNL     1      33.531 -16.968 -20.018  1.00  0.00     0.104 A 
ENDROOT
BRANCH   7  10
HETATM   10  C8  UNL     1      33.542 -20.168 -18.497  1.00  0.00     0.058 A 
HETATM   11  C9  UNL     1      32.271 -20.671 -18.167  1.00  0.00     0.032 A 
HETATM   12  C10 UNL     1      32.143 -21.799 -17.351  1.00  0.00     0.010 A 
HETATM   13  C11 UNL     1      33.278 -22.451 -16.833  1.00  0.00    -0.052 A 
HETATM   14  C17 UNL     1      34.547 -21.946 -17.168  1.00  0.00     0.010 A 
HETATM   15  C18 UNL     1      34.676 -20.819 -17.983  1.00  0.00     0.032 A 
BRANCH  13  16
HETATM   16  C12 UNL     1      33.092 -23.688 -15.958  1.00  0.00     0.044 C 
HETATM   17  C13 UNL     1      31.803 -24.488 -16.260  1.00  0.00     0.013 C 
HETATM   18  C14 UNL     1      30.588 -24.067 -15.423  1.00  0.00     0.028 C 
HETATM   19  C15 UNL     1      30.960 -23.887 -13.949  1.00  0.00     0.232 C 
HETATM   20  N3  UNL     1      32.055 -22.923 -13.794  1.00  0.00    -0.074 N 
HETATM   21  C16 UNL     1      33.284 -23.394 -14.451  1.00  0.00     0.241 C 
HETATM   22  H16 UNL     1      31.776 -21.986 -14.163  1.00  0.00     0.277 HD
HETATM   23  H17 UNL     1      32.252 -22.811 -12.773  1.00  0.00     0.277 HD
ENDBRANCH  13  16
ENDBRANCH   7  10
BRANCH   1  24
HETATM   24  C1  UNL     1      32.441 -14.888 -19.106  1.00  0.00     0.251 C 
HETATM   25  N1  UNL     1      31.058 -15.187 -18.901  1.00  0.00    -0.366 N 
HETATM   26  H1  UNL     1      30.528 -15.808 -19.549  1.00  0.00     0.159 HD
HETATM   27  H2  UNL     1      30.531 -14.711 -18.135  1.00  0.00     0.159 HD
HETATM   28  O1  UNL     1      32.980 -13.993 -18.401  1.00  0.00    -0.268 OA
ENDBRANCH   1  24
TORSDOF 3
ENDMDL
